
Predictions were generated on 15-Jan-2025 at 19:52:25 using OpenFAST, compiled as a DLL S-Function for Simulink as a 64-bit application using double precision at commit v3.3.0-1-g4e85fa62-dirty
 linked with  NWTC Subroutine Library; ElastoDyn; InflowWind; AeroDyn; ServoDyn

Description from the FAST input file: IEA 15 MW offshore reference model monopile configuration

Time	Wind1VelX	Wind1VelY	BldPitch1	GenSpeed	TTDspFA	TTDspSS	YawBrTAxp	YawBrTAyp	GenPwr	GenTq
(s)	(m/s)	(m/s)	(deg)	(rpm)	(m)	(m)	(m/s^2)	(m/s^2)	(kW)	(kN-m)
   10.0000	 1.800E+01	 0.000E+00	 1.547E+01	 9.654E+00	-2.811E-01	-1.342E-02	 1.199E-01	-3.761E-03	-1.055E-01	-9.990E-02
   10.2000	 1.800E+01	 0.000E+00	 1.547E+01	 9.663E+00	-2.850E-01	-1.364E-02	 1.295E-01	-8.504E-02	-1.056E-01	-9.990E-02
   10.4000	 1.800E+01	 0.000E+00	 1.547E+01	 9.665E+00	-2.839E-01	-1.710E-02	 9.374E-02	-1.130E-01	-1.056E-01	-9.990E-02
   10.6000	 1.800E+01	 0.000E+00	 1.547E+01	 9.667E+00	-2.790E-01	-2.456E-02	 4.303E-02	 1.964E-03	-1.056E-01	-9.990E-02
   10.8000	 1.800E+01	 0.000E+00	 1.547E+01	 9.675E+00	-2.724E-01	-3.176E-02	 6.345E-03	 1.649E-01	-1.057E-01	-9.990E-02
   11.0000	 1.800E+01	 0.000E+00	 1.547E+01	 9.681E+00	-2.655E-01	-3.304E-02	-1.771E-04	 1.427E-01	-1.058E-01	-9.990E-02
   11.2000	 1.800E+01	 0.000E+00	 1.547E+01	 9.690E+00	-2.585E-01	-2.921E-02	-1.644E-02	-4.472E-02	-1.059E-01	-9.990E-02
   11.4000	 1.800E+01	 0.000E+00	 1.547E+01	 9.689E+00	-2.523E-01	-2.695E-02	-4.572E-02	-1.799E-01	-1.059E-01	-9.990E-02
   11.6000	 1.800E+01	 0.000E+00	 1.547E+01	 9.689E+00	-2.479E-01	-3.143E-02	-5.556E-02	-1.760E-01	-1.059E-01	-9.990E-02
   11.8000	 1.800E+01	 0.000E+00	 1.547E+01	 9.692E+00	-2.455E-01	-4.231E-02	-3.718E-02	 6.971E-03	-1.059E-01	-9.990E-02
   12.0000	 1.800E+01	 0.000E+00	 1.547E+01	 9.694E+00	-2.446E-01	-5.290E-02	 5.215E-04	 1.939E-01	-1.059E-01	-9.990E-02
   12.2000	 1.800E+01	 0.000E+00	 1.547E+01	 9.701E+00	-2.437E-01	-5.638E-02	 2.097E-02	 2.025E-01	-1.060E-01	-9.990E-02
   12.4000	 1.800E+01	 0.000E+00	 1.547E+01	 9.706E+00	-2.422E-01	-5.225E-02	-7.337E-03	 6.362E-02	-1.060E-01	-9.990E-02
   12.6000	 1.800E+01	 0.000E+00	 1.547E+01	 9.706E+00	-2.410E-01	-4.558E-02	-6.118E-02	-6.947E-02	-1.060E-01	-9.990E-02
   12.8000	 1.800E+01	 0.000E+00	 1.547E+01	 9.709E+00	-2.423E-01	-4.111E-02	-9.873E-02	-4.722E-02	-1.061E-01	-9.990E-02
   13.0000	 1.800E+01	 0.000E+00	 1.547E+01	 9.709E+00	-2.472E-01	-3.834E-02	-7.297E-02	 2.830E-02	-1.061E-01	-9.990E-02
   13.2000	 1.800E+01	 0.000E+00	 1.547E+01	 9.716E+00	-2.550E-01	-3.476E-02	-9.898E-03	 2.116E-02	-1.062E-01	-9.990E-02
   13.4000	 1.800E+01	 0.000E+00	 1.547E+01	 9.717E+00	-2.632E-01	-3.051E-02	 3.901E-02	-4.019E-02	-1.062E-01	-9.990E-02
   13.6000	 1.800E+01	 0.000E+00	 1.547E+01	 9.716E+00	-2.699E-01	-2.786E-02	 5.193E-02	-9.764E-02	-1.061E-01	-9.990E-02
   13.8000	 1.800E+01	 0.000E+00	 1.547E+01	 9.721E+00	-2.747E-01	-2.879E-02	 3.268E-02	-5.885E-02	-1.062E-01	-9.990E-02
   14.0000	 1.800E+01	 0.000E+00	 1.547E+01	 9.722E+00	-2.782E-01	-3.164E-02	 1.350E-02	 9.486E-02	-1.062E-01	-9.990E-02
   14.2000	 1.800E+01	 0.000E+00	 1.547E+01	 9.727E+00	-2.811E-01	-3.097E-02	 1.515E-02	 1.771E-01	-1.063E-01	-9.990E-02
   14.4000	 1.800E+01	 0.000E+00	 1.547E+01	 9.734E+00	-2.833E-01	-2.375E-02	 1.962E-02	 1.011E-01	-1.063E-01	-9.990E-02
   14.6000	 1.800E+01	 0.000E+00	 1.547E+01	 9.732E+00	-2.848E-01	-1.298E-02	 1.799E-02	-1.062E-01	-1.063E-01	-9.990E-02
   14.8000	 1.800E+01	 0.000E+00	 1.547E+01	 9.731E+00	-2.857E-01	-6.111E-03	-1.506E-03	-2.235E-01	-1.063E-01	-9.990E-02
   15.0000	 1.800E+01	 0.000E+00	 1.547E+01	 9.726E+00	-2.865E-01	-7.569E-03	-2.784E-03	-1.669E-01	-1.063E-01	-9.990E-02
   15.2000	 1.800E+01	 0.000E+00	 1.547E+01	 9.725E+00	-2.873E-01	-1.543E-02	 3.062E-02	-2.855E-02	-1.063E-01	-9.990E-02
   15.4000	 1.800E+01	 0.000E+00	 1.547E+01	 9.729E+00	-2.869E-01	-2.451E-02	 6.323E-02	 8.969E-02	-1.063E-01	-9.990E-02
   15.6000	 1.800E+01	 0.000E+00	 1.547E+01	 9.728E+00	-2.841E-01	-3.034E-02	 6.656E-02	 1.060E-01	-1.063E-01	-9.990E-02
   15.8000	 1.800E+01	 0.000E+00	 1.547E+01	 9.733E+00	-2.787E-01	-3.238E-02	 2.362E-02	 6.572E-03	-1.063E-01	-9.990E-02
   16.0000	 1.800E+01	 0.000E+00	 1.547E+01	 9.735E+00	-2.725E-01	-3.387E-02	-4.553E-02	-2.741E-02	-1.064E-01	-9.990E-02
   16.2000	 1.800E+01	 0.000E+00	 1.547E+01	 9.733E+00	-2.681E-01	-3.620E-02	-8.143E-02	 1.689E-02	-1.063E-01	-9.990E-02
   16.4000	 1.800E+01	 0.000E+00	 1.547E+01	 9.737E+00	-2.667E-01	-3.781E-02	-6.210E-02	 6.670E-02	-1.064E-01	-9.990E-02
   16.6000	 1.800E+01	 0.000E+00	 1.547E+01	 9.735E+00	-2.676E-01	-3.716E-02	-7.975E-03	 1.117E-02	-1.064E-01	-9.990E-02
   16.8000	 1.800E+01	 0.000E+00	 1.547E+01	 9.733E+00	-2.689E-01	-3.618E-02	 2.466E-02	-8.267E-02	-1.063E-01	-9.990E-02
   17.0000	 1.800E+01	 0.000E+00	 1.547E+01	 9.730E+00	-2.694E-01	-3.827E-02	 1.723E-02	-1.061E-01	-1.063E-01	-9.990E-02
   17.2000	 1.800E+01	 0.000E+00	 1.547E+01	 9.728E+00	-2.693E-01	-4.426E-02	 2.051E-03	-2.762E-02	-1.063E-01	-9.990E-02
   17.4000	 1.800E+01	 0.000E+00	 1.547E+01	 9.734E+00	-2.690E-01	-5.112E-02	-7.828E-03	 1.177E-01	-1.063E-01	-9.990E-02
   17.6000	 1.800E+01	 0.000E+00	 1.547E+01	 9.736E+00	-2.690E-01	-5.341E-02	-4.365E-03	 2.134E-01	-1.064E-01	-9.990E-02
   17.8000	 1.800E+01	 0.000E+00	 1.547E+01	 9.741E+00	-2.692E-01	-4.791E-02	-6.194E-03	 1.095E-01	-1.064E-01	-9.990E-02
   18.0000	 1.800E+01	 0.000E+00	 1.547E+01	 9.745E+00	-2.697E-01	-3.822E-02	-3.379E-02	-5.813E-02	-1.065E-01	-9.990E-02
   18.2000	 1.800E+01	 0.000E+00	 1.547E+01	 9.741E+00	-2.716E-01	-3.055E-02	-5.498E-02	-1.360E-01	-1.064E-01	-9.990E-02
   18.4000	 1.800E+01	 0.000E+00	 1.547E+01	 9.741E+00	-2.755E-01	-2.784E-02	-3.585E-02	-7.623E-02	-1.064E-01	-9.990E-02
   18.6000	 1.800E+01	 0.000E+00	 1.547E+01	 9.740E+00	-2.808E-01	-2.802E-02	 2.292E-02	 2.558E-02	-1.064E-01	-9.990E-02
   18.8000	 1.800E+01	 0.000E+00	 1.547E+01	 9.738E+00	-2.851E-01	-2.745E-02	 7.855E-02	 5.370E-02	-1.064E-01	-9.990E-02
   19.0000	 1.800E+01	 0.000E+00	 1.547E+01	 9.739E+00	-2.864E-01	-2.497E-02	 7.531E-02	 1.460E-02	-1.064E-01	-9.990E-02
   19.2000	 1.800E+01	 0.000E+00	 1.547E+01	 9.737E+00	-2.849E-01	-2.199E-02	 3.113E-02	-4.757E-02	-1.064E-01	-9.990E-02
   19.4000	 1.800E+01	 0.000E+00	 1.547E+01	 9.741E+00	-2.822E-01	-2.070E-02	-2.059E-02	-4.775E-02	-1.064E-01	-9.990E-02
   19.6000	 1.800E+01	 0.000E+00	 1.547E+01	 9.741E+00	-2.802E-01	-2.099E-02	-4.202E-02	 3.801E-02	-1.064E-01	-9.990E-02
   19.8000	 1.800E+01	 0.000E+00	 1.547E+01	 9.742E+00	-2.798E-01	-2.001E-02	-2.166E-02	 5.697E-02	-1.064E-01	-9.990E-02
   20.0000	 1.800E+01	 0.000E+00	 1.547E+01	 9.746E+00	-2.801E-01	-1.715E-02	 2.578E-03	-3.360E-02	-1.065E-01	-9.990E-02
   20.2000	 1.800E+01	 0.000E+00	 1.547E+01	 9.742E+00	-2.805E-01	-1.561E-02	 7.880E-03	-1.209E-01	-1.064E-01	-9.990E-02
   20.4000	 1.800E+01	 0.000E+00	 1.547E+01	 9.738E+00	-2.806E-01	-1.861E-02	 4.875E-03	-1.205E-01	-1.064E-01	-9.990E-02
   20.6000	 1.800E+01	 0.000E+00	 1.547E+01	 9.738E+00	-2.804E-01	-2.601E-02	 9.996E-03	-6.768E-03	-1.064E-01	-9.990E-02
   20.8000	 1.800E+01	 0.000E+00	 1.547E+01	 9.735E+00	-2.798E-01	-3.374E-02	 2.962E-02	 9.991E-02	-1.064E-01	-9.990E-02
   21.0000	 1.800E+01	 0.000E+00	 1.547E+01	 9.739E+00	-2.781E-01	-3.769E-02	 2.616E-02	 1.342E-01	-1.064E-01	-9.990E-02
   21.2000	 1.800E+01	 0.000E+00	 1.547E+01	 9.738E+00	-2.754E-01	-3.674E-02	 1.270E-03	 4.020E-02	-1.064E-01	-9.990E-02
   21.4000	 1.800E+01	 0.000E+00	 1.547E+01	 9.740E+00	-2.727E-01	-3.432E-02	-3.543E-02	-9.160E-02	-1.064E-01	-9.990E-02
   21.6000	 1.800E+01	 0.000E+00	 1.547E+01	 9.740E+00	-2.714E-01	-3.511E-02	-6.040E-02	-9.848E-02	-1.064E-01	-9.990E-02
   21.8000	 1.800E+01	 0.000E+00	 1.547E+01	 9.737E+00	-2.723E-01	-3.946E-02	-3.934E-02	-1.404E-03	-1.064E-01	-9.990E-02
   22.0000	 1.800E+01	 0.000E+00	 1.547E+01	 9.741E+00	-2.747E-01	-4.404E-02	 7.393E-03	 6.024E-02	-1.064E-01	-9.990E-02
   22.2000	 1.800E+01	 0.000E+00	 1.547E+01	 9.742E+00	-2.769E-01	-4.634E-02	 3.629E-02	 7.367E-02	-1.064E-01	-9.990E-02
   22.4000	 1.800E+01	 0.000E+00	 1.547E+01	 9.741E+00	-2.777E-01	-4.595E-02	 3.286E-02	 2.261E-02	-1.064E-01	-9.990E-02
   22.6000	 1.800E+01	 0.000E+00	 1.547E+01	 9.743E+00	-2.774E-01	-4.451E-02	 3.206E-03	 2.223E-03	-1.065E-01	-9.990E-02
   22.8000	 1.800E+01	 0.000E+00	 1.547E+01	 9.741E+00	-2.768E-01	-4.287E-02	-1.568E-02	 2.381E-02	-1.064E-01	-9.990E-02
   23.0000	 1.800E+01	 0.000E+00	 1.547E+01	 9.743E+00	-2.768E-01	-4.013E-02	-1.958E-02	 7.786E-02	-1.065E-01	-9.990E-02
   23.2000	 1.800E+01	 0.000E+00	 1.547E+01	 9.743E+00	-2.776E-01	-3.454E-02	-8.146E-03	 5.574E-02	-1.065E-01	-9.990E-02
   23.4000	 1.800E+01	 0.000E+00	 1.547E+01	 9.744E+00	-2.787E-01	-2.708E-02	 4.779E-03	-6.526E-02	-1.065E-01	-9.990E-02
   23.6000	 1.800E+01	 0.000E+00	 1.547E+01	 9.745E+00	-2.796E-01	-2.210E-02	 7.614E-04	-1.465E-01	-1.065E-01	-9.990E-02
   23.8000	 1.800E+01	 0.000E+00	 1.547E+01	 9.739E+00	-2.805E-01	-2.246E-02	 1.157E-03	-8.640E-02	-1.064E-01	-9.990E-02
   24.0000	 1.800E+01	 0.000E+00	 1.547E+01	 9.741E+00	-2.813E-01	-2.614E-02	 1.532E-02	 2.216E-02	-1.064E-01	-9.990E-02
   24.2000	 1.800E+01	 0.000E+00	 1.547E+01	 9.744E+00	-2.815E-01	-2.893E-02	 2.628E-02	 1.208E-01	-1.065E-01	-9.990E-02
   24.4000	 1.800E+01	 0.000E+00	 1.547E+01	 9.744E+00	-2.807E-01	-2.733E-02	 2.276E-02	 9.875E-02	-1.065E-01	-9.990E-02
   24.6000	 1.800E+01	 0.000E+00	 1.547E+01	 9.747E+00	-2.791E-01	-2.206E-02	-3.767E-03	-4.612E-03	-1.065E-01	-9.990E-02
   24.8000	 1.800E+01	 0.000E+00	 1.547E+01	 9.744E+00	-2.776E-01	-1.696E-02	-2.875E-02	-1.019E-01	-1.065E-01	-9.990E-02
   25.0000	 1.800E+01	 0.000E+00	 1.547E+01	 9.741E+00	-2.772E-01	-1.555E-02	-3.419E-02	-9.620E-02	-1.064E-01	-9.990E-02
   25.2000	 1.800E+01	 0.000E+00	 1.547E+01	 9.739E+00	-2.781E-01	-1.777E-02	-1.569E-02	-2.335E-02	-1.064E-01	-9.990E-02
   25.4000	 1.800E+01	 0.000E+00	 1.547E+01	 9.737E+00	-2.796E-01	-2.112E-02	 2.194E-02	-3.470E-03	-1.064E-01	-9.990E-02
   25.6000	 1.800E+01	 0.000E+00	 1.547E+01	 9.740E+00	-2.802E-01	-2.482E-02	 3.744E-02	-3.725E-02	-1.064E-01	-9.990E-02
   25.8000	 1.800E+01	 0.000E+00	 1.547E+01	 9.737E+00	-2.795E-01	-2.982E-02	 2.380E-02	-2.605E-02	-1.064E-01	-9.990E-02
   26.0000	 1.800E+01	 0.000E+00	 1.547E+01	 9.738E+00	-2.778E-01	-3.579E-02	 6.756E-04	 1.098E-02	-1.064E-01	-9.990E-02
   26.2000	 1.800E+01	 0.000E+00	 1.547E+01	 9.742E+00	-2.761E-01	-4.119E-02	-2.100E-02	 8.090E-02	-1.064E-01	-9.990E-02
   26.4000	 1.800E+01	 0.000E+00	 1.547E+01	 9.742E+00	-2.752E-01	-4.348E-02	-2.728E-02	 1.155E-01	-1.064E-01	-9.990E-02
   26.6000	 1.800E+01	 0.000E+00	 1.547E+01	 9.745E+00	-2.753E-01	-4.149E-02	-2.087E-02	 5.620E-02	-1.065E-01	-9.990E-02
   26.8000	 1.800E+01	 0.000E+00	 1.547E+01	 9.745E+00	-2.763E-01	-3.743E-02	-1.094E-02	-5.685E-02	-1.065E-01	-9.990E-02
   27.0000	 1.800E+01	 0.000E+00	 1.547E+01	 9.740E+00	-2.777E-01	-3.547E-02	-4.165E-04	-1.189E-01	-1.064E-01	-9.990E-02
   27.2000	 1.800E+01	 0.000E+00	 1.547E+01	 9.739E+00	-2.791E-01	-3.781E-02	 4.399E-03	-5.111E-02	-1.064E-01	-9.990E-02
   27.4000	 1.800E+01	 0.000E+00	 1.547E+01	 9.736E+00	-2.803E-01	-4.208E-02	 2.249E-02	 4.741E-02	-1.064E-01	-9.990E-02
   27.6000	 1.800E+01	 0.000E+00	 1.547E+01	 9.741E+00	-2.807E-01	-4.469E-02	 3.427E-02	 8.773E-02	-1.064E-01	-9.990E-02
   27.8000	 1.800E+01	 0.000E+00	 1.547E+01	 9.743E+00	-2.797E-01	-4.392E-02	 2.265E-02	 8.205E-02	-1.064E-01	-9.990E-02
   28.0000	 1.800E+01	 0.000E+00	 1.547E+01	 9.743E+00	-2.779E-01	-4.007E-02	-3.162E-03	 2.133E-02	-1.064E-01	-9.990E-02
   28.2000	 1.800E+01	 0.000E+00	 1.547E+01	 9.747E+00	-2.762E-01	-3.535E-02	-3.455E-02	-3.068E-02	-1.065E-01	-9.990E-02
   28.4000	 1.800E+01	 0.000E+00	 1.547E+01	 9.746E+00	-2.759E-01	-3.157E-02	-4.646E-02	-7.569E-03	-1.065E-01	-9.990E-02
   28.6000	 1.800E+01	 0.000E+00	 1.547E+01	 9.746E+00	-2.772E-01	-2.812E-02	-2.282E-02	 1.357E-02	-1.065E-01	-9.990E-02
   28.8000	 1.800E+01	 0.000E+00	 1.547E+01	 9.746E+00	-2.795E-01	-2.424E-02	 1.422E-02	-5.055E-03	-1.065E-01	-9.990E-02
   29.0000	 1.800E+01	 0.000E+00	 1.547E+01	 9.741E+00	-2.812E-01	-2.077E-02	 4.214E-02	-6.935E-02	-1.064E-01	-9.990E-02
   29.2000	 1.800E+01	 0.000E+00	 1.547E+01	 9.741E+00	-2.813E-01	-1.981E-02	 3.168E-02	-6.942E-02	-1.064E-01	-9.990E-02
   29.4000	 1.800E+01	 0.000E+00	 1.547E+01	 9.737E+00	-2.803E-01	-2.144E-02	 9.822E-03	-1.431E-02	-1.064E-01	-9.990E-02
   29.6000	 1.800E+01	 0.000E+00	 1.547E+01	 9.740E+00	-2.788E-01	-2.365E-02	-3.176E-03	 3.930E-02	-1.064E-01	-9.990E-02
   29.8000	 1.800E+01	 0.000E+00	 1.547E+01	 9.743E+00	-2.774E-01	-2.439E-02	-1.119E-02	 6.328E-02	-1.064E-01	-9.990E-02
   30.0000	 1.800E+01	 0.000E+00	 1.547E+01	 9.742E+00	-2.764E-01	-2.282E-02	-1.250E-02	 2.010E-02	-1.064E-01	-9.990E-02
   30.2000	 1.800E+01	 0.000E+00	 1.547E+01	 9.744E+00	-2.760E-01	-2.068E-02	-1.868E-02	-8.082E-02	-1.065E-01	-9.990E-02
   30.4000	 1.800E+01	 0.000E+00	 1.547E+01	 9.743E+00	-2.763E-01	-2.143E-02	-2.706E-02	-9.392E-02	-1.064E-01	-9.990E-02
   30.6000	 1.800E+01	 0.000E+00	 1.547E+01	 9.739E+00	-2.776E-01	-2.570E-02	-1.442E-02	-3.376E-02	-1.064E-01	-9.990E-02
   30.8000	 1.800E+01	 0.000E+00	 1.547E+01	 9.741E+00	-2.795E-01	-3.122E-02	 1.393E-02	 5.008E-02	-1.064E-01	-9.990E-02
   31.0000	 1.800E+01	 0.000E+00	 1.547E+01	 9.738E+00	-2.807E-01	-3.505E-02	 4.294E-02	 5.422E-02	-1.064E-01	-9.990E-02
   31.2000	 1.800E+01	 0.000E+00	 1.547E+01	 9.740E+00	-2.804E-01	-3.680E-02	 3.515E-02	 2.377E-02	-1.064E-01	-9.990E-02
   31.4000	 1.800E+01	 0.000E+00	 1.547E+01	 9.738E+00	-2.788E-01	-3.760E-02	 9.581E-05	-6.129E-03	-1.064E-01	-9.990E-02
   31.6000	 1.800E+01	 0.000E+00	 1.547E+01	 9.739E+00	-2.771E-01	-3.859E-02	-2.598E-02	-1.940E-02	-1.064E-01	-9.990E-02
   31.8000	 1.800E+01	 0.000E+00	 1.547E+01	 9.743E+00	-2.765E-01	-4.023E-02	-3.373E-02	 8.175E-03	-1.064E-01	-9.990E-02
   32.0000	 1.800E+01	 0.000E+00	 1.547E+01	 9.741E+00	-2.770E-01	-4.145E-02	-1.492E-02	 4.894E-02	-1.064E-01	-9.990E-02
   32.2000	 1.800E+01	 0.000E+00	 1.547E+01	 9.743E+00	-2.782E-01	-4.106E-02	 1.036E-02	 5.660E-03	-1.065E-01	-9.990E-02
   32.4000	 1.800E+01	 0.000E+00	 1.547E+01	 9.745E+00	-2.790E-01	-4.037E-02	 1.356E-02	-2.732E-02	-1.065E-01	-9.990E-02
   32.6000	 1.800E+01	 0.000E+00	 1.547E+01	 9.742E+00	-2.793E-01	-4.063E-02	 5.650E-03	-1.452E-02	-1.064E-01	-9.990E-02
   32.8000	 1.800E+01	 0.000E+00	 1.547E+01	 9.744E+00	-2.794E-01	-4.129E-02	 1.009E-03	 4.686E-02	-1.065E-01	-9.990E-02
   33.0000	 1.800E+01	 0.000E+00	 1.547E+01	 9.743E+00	-2.794E-01	-4.018E-02	 9.330E-03	 7.931E-02	-1.064E-01	-9.990E-02
   33.2000	 1.800E+01	 0.000E+00	 1.547E+01	 9.744E+00	-2.790E-01	-3.608E-02	 1.363E-02	 5.659E-02	-1.065E-01	-9.990E-02
   33.4000	 1.800E+01	 0.000E+00	 1.547E+01	 9.744E+00	-2.782E-01	-2.987E-02	-1.379E-03	-6.873E-03	-1.065E-01	-9.990E-02
   33.6000	 1.800E+01	 0.000E+00	 1.547E+01	 9.741E+00	-2.774E-01	-2.400E-02	-1.491E-02	-8.641E-02	-1.064E-01	-9.990E-02
   33.8000	 1.800E+01	 0.000E+00	 1.547E+01	 9.744E+00	-2.771E-01	-2.139E-02	-2.236E-02	-1.034E-01	-1.065E-01	-9.990E-02
   34.0000	 1.800E+01	 0.000E+00	 1.547E+01	 9.741E+00	-2.777E-01	-2.251E-02	-1.035E-02	-1.792E-02	-1.064E-01	-9.990E-02
   34.2000	 1.800E+01	 0.000E+00	 1.547E+01	 9.741E+00	-2.787E-01	-2.449E-02	 1.727E-02	 3.723E-02	-1.064E-01	-9.990E-02
   34.4000	 1.800E+01	 0.000E+00	 1.547E+01	 9.745E+00	-2.790E-01	-2.517E-02	 2.662E-02	 3.691E-02	-1.065E-01	-9.990E-02
   34.6000	 1.800E+01	 0.000E+00	 1.547E+01	 9.742E+00	-2.784E-01	-2.448E-02	 1.057E-02	 7.874E-03	-1.064E-01	-9.990E-02
   34.8000	 1.800E+01	 0.000E+00	 1.547E+01	 9.743E+00	-2.774E-01	-2.345E-02	-1.425E-02	-1.614E-02	-1.065E-01	-9.990E-02
   35.0000	 1.800E+01	 0.000E+00	 1.547E+01	 9.743E+00	-2.769E-01	-2.295E-02	-2.526E-02	-1.073E-02	-1.064E-01	-9.990E-02
   35.2000	 1.800E+01	 0.000E+00	 1.547E+01	 9.740E+00	-2.773E-01	-2.291E-02	-1.163E-02	-5.941E-03	-1.064E-01	-9.990E-02
   35.4000	 1.800E+01	 0.000E+00	 1.547E+01	 9.741E+00	-2.782E-01	-2.309E-02	 9.444E-04	-5.366E-03	-1.064E-01	-9.990E-02
   35.6000	 1.800E+01	 0.000E+00	 1.547E+01	 9.737E+00	-2.790E-01	-2.367E-02	 1.244E-02	-5.009E-02	-1.064E-01	-9.990E-02
   35.8000	 1.800E+01	 0.000E+00	 1.547E+01	 9.739E+00	-2.794E-01	-2.624E-02	 1.156E-02	-9.034E-02	-1.064E-01	-9.990E-02
   36.0000	 1.800E+01	 0.000E+00	 1.547E+01	 9.738E+00	-2.793E-01	-3.206E-02	 2.881E-03	-2.934E-02	-1.064E-01	-9.990E-02
   36.2000	 1.800E+01	 0.000E+00	 1.547E+01	 9.737E+00	-2.791E-01	-3.893E-02	 6.001E-03	 6.548E-02	-1.064E-01	-9.990E-02
   36.4000	 1.800E+01	 0.000E+00	 1.547E+01	 9.743E+00	-2.787E-01	-4.341E-02	 8.530E-03	 1.008E-01	-1.064E-01	-9.990E-02
   36.6000	 1.800E+01	 0.000E+00	 1.547E+01	 9.744E+00	-2.780E-01	-4.403E-02	-1.778E-03	 8.199E-02	-1.065E-01	-9.990E-02
   36.8000	 1.800E+01	 0.000E+00	 1.547E+01	 9.744E+00	-2.773E-01	-4.158E-02	-1.673E-02	 7.664E-03	-1.065E-01	-9.990E-02
   37.0000	 1.800E+01	 0.000E+00	 1.547E+01	 9.745E+00	-2.773E-01	-3.870E-02	-2.581E-02	-4.100E-02	-1.065E-01	-9.990E-02
   37.2000	 1.800E+01	 0.000E+00	 1.547E+01	 9.741E+00	-2.783E-01	-3.736E-02	-1.048E-02	-5.040E-02	-1.064E-01	-9.990E-02
   37.4000	 1.800E+01	 0.000E+00	 1.547E+01	 9.742E+00	-2.796E-01	-3.778E-02	 8.859E-03	 3.548E-03	-1.064E-01	-9.990E-02
   37.6000	 1.800E+01	 0.000E+00	 1.547E+01	 9.739E+00	-2.806E-01	-3.816E-02	 2.730E-02	 3.231E-02	-1.064E-01	-9.990E-02
   37.8000	 1.800E+01	 0.000E+00	 1.547E+01	 9.741E+00	-2.806E-01	-3.747E-02	 3.121E-02	 9.416E-04	-1.064E-01	-9.990E-02
   38.0000	 1.800E+01	 0.000E+00	 1.547E+01	 9.743E+00	-2.794E-01	-3.666E-02	 1.015E-02	-8.782E-03	-1.064E-01	-9.990E-02
   38.2000	 1.800E+01	 0.000E+00	 1.547E+01	 9.741E+00	-2.778E-01	-3.602E-02	-1.010E-02	 2.745E-02	-1.064E-01	-9.990E-02
   38.4000	 1.800E+01	 0.000E+00	 1.547E+01	 9.745E+00	-2.765E-01	-3.440E-02	-1.961E-02	 3.787E-02	-1.065E-01	-9.990E-02
   38.6000	 1.800E+01	 0.000E+00	 1.547E+01	 9.747E+00	-2.761E-01	-3.124E-02	-2.280E-02	 4.526E-02	-1.065E-01	-9.990E-02
   38.8000	 1.800E+01	 0.000E+00	 1.547E+01	 9.745E+00	-2.765E-01	-2.648E-02	-1.534E-02	 1.230E-04	-1.065E-01	-9.990E-02
   39.0000	 1.800E+01	 0.000E+00	 1.547E+01	 9.746E+00	-2.775E-01	-2.172E-02	-6.183E-03	-5.441E-02	-1.065E-01	-9.990E-02
   39.2000	 1.800E+01	 0.000E+00	 1.547E+01	 9.741E+00	-2.787E-01	-1.911E-02	 8.878E-03	-9.102E-02	-1.064E-01	-9.990E-02
   39.4000	 1.800E+01	 0.000E+00	 1.547E+01	 9.740E+00	-2.796E-01	-1.983E-02	 1.665E-02	-4.749E-02	-1.064E-01	-9.990E-02
   39.6000	 1.800E+01	 0.000E+00	 1.547E+01	 9.738E+00	-2.798E-01	-2.236E-02	 1.772E-02	 2.408E-02	-1.064E-01	-9.990E-02
   39.8000	 1.800E+01	 0.000E+00	 1.547E+01	 9.738E+00	-2.794E-01	-2.414E-02	 1.853E-02	 3.514E-02	-1.064E-01	-9.990E-02
   40.0000	 1.800E+01	 0.000E+00	 1.547E+01	 9.743E+00	-2.783E-01	-2.468E-02	 3.316E-03	 2.107E-03	-1.064E-01	-9.990E-02
   40.2000	 1.800E+01	 0.000E+00	 3.647E+01	 9.718E+00	-2.776E-01	-2.950E-02	 2.666E-01	-6.853E-02	-1.062E-01	-9.990E-02
   40.4000	 1.800E+01	 0.000E+00	 4.547E+01	 9.117E+00	-2.788E-01	-3.634E-02	-1.959E+00	 3.829E-01	-9.961E-02	-9.991E-02
   40.6000	 1.800E+01	 0.000E+00	 4.547E+01	 7.632E+00	-3.571E-01	-3.448E-02	-4.198E+00	-2.192E-01	-8.340E-02	-9.992E-02
   40.8000	 1.800E+01	 0.000E+00	 4.547E+01	 7.694E+00	-5.974E-01	-3.527E-02	-4.783E+00	 4.724E-01	-8.407E-02	-9.992E-02
   41.0000	 1.800E+01	 0.000E+00	 4.547E+01	 5.828E+00	-1.021E+00	-2.840E-02	-2.716E+00	-3.020E-01	-6.370E-02	-9.994E-02
   41.2000	 1.800E+01	 0.000E+00	 4.547E+01	 5.218E+00	-1.543E+00	-2.306E-02	 2.017E+00	 6.774E-01	-5.703E-02	-9.995E-02
   41.4000	 1.800E+01	 0.000E+00	 4.547E+01	 4.433E+00	-1.994E+00	-1.707E-03	 4.549E+00	-3.730E-01	-4.846E-02	-9.996E-02
   41.6000	 1.800E+01	 0.000E+00	 4.547E+01	 4.676E+00	-2.267E+00	 1.395E-02	 5.185E+00	 2.147E-01	-5.111E-02	-9.995E-02
   41.8000	 1.800E+01	 0.000E+00	 4.547E+01	 5.685E+00	-2.340E+00	 3.064E-02	 3.719E+00	-1.352E-01	-6.214E-02	-9.994E-02
   42.0000	 1.800E+01	 0.000E+00	 4.547E+01	 5.819E+00	-2.264E+00	 4.655E-02	 2.310E+00	 4.505E-01	-6.360E-02	-9.994E-02
   42.2000	 1.800E+01	 0.000E+00	 4.547E+01	 5.243E+00	-2.098E+00	 7.065E-02	 4.798E-01	-8.057E-01	-5.730E-02	-9.995E-02
   42.4000	 1.800E+01	 0.000E+00	 4.547E+01	 4.925E+00	-1.908E+00	 7.446E-02	 2.416E-02	 1.624E-01	-5.383E-02	-9.995E-02
   42.6000	 1.800E+01	 0.000E+00	 4.547E+01	 4.487E+00	-1.714E+00	 7.438E-02	 2.682E-01	-7.614E-01	-4.904E-02	-9.996E-02
   42.8000	 1.800E+01	 0.000E+00	 4.547E+01	 3.598E+00	-1.509E+00	 5.604E-02	 6.634E-01	 3.459E-01	-3.933E-02	-9.996E-02
   43.0000	 1.800E+01	 0.000E+00	 4.547E+01	 3.757E+00	-1.276E+00	 4.167E-02	 1.585E+00	-2.447E-01	-4.107E-02	-9.996E-02
   43.2000	 1.800E+01	 0.000E+00	 4.547E+01	 3.672E+00	-9.810E-01	 2.470E-02	 2.048E+00	 3.119E-01	-4.014E-02	-9.996E-02
   43.4000	 1.800E+01	 0.000E+00	 4.547E+01	 3.792E+00	-6.083E-01	 1.459E-02	 1.303E+00	 4.252E-02	-4.145E-02	-9.996E-02
   43.6000	 1.800E+01	 0.000E+00	 4.547E+01	 3.936E+00	-1.862E-01	 9.809E-03	-3.047E-01	 1.886E-01	-4.302E-02	-9.996E-02
   43.8000	 1.800E+01	 0.000E+00	 4.547E+01	 4.244E+00	 2.246E-01	 6.571E-03	-1.853E+00	-5.764E-01	-4.639E-02	-9.996E-02
   44.0000	 1.800E+01	 0.000E+00	 4.547E+01	 3.755E+00	 5.624E-01	-1.086E-02	-2.942E+00	 3.233E-01	-4.105E-02	-9.996E-02
   44.2000	 1.800E+01	 0.000E+00	 4.547E+01	 3.492E+00	 7.866E-01	-2.418E-02	-2.934E+00	-4.057E-01	-3.817E-02	-9.997E-02
   44.4000	 1.800E+01	 0.000E+00	 4.547E+01	 3.211E+00	 8.942E-01	-4.717E-02	-2.675E+00	 2.458E-01	-3.510E-02	-9.997E-02
   44.6000	 1.800E+01	 0.000E+00	 4.547E+01	 2.917E+00	 8.953E-01	-6.282E-02	-2.229E+00	 4.460E-01	-3.189E-02	-9.997E-02
   44.8000	 1.800E+01	 0.000E+00	 4.547E+01	 3.130E+00	 8.083E-01	-6.288E-02	-1.478E+00	-2.022E-02	-3.422E-02	-9.997E-02
   45.0000	 1.800E+01	 0.000E+00	 4.547E+01	 3.145E+00	 6.613E-01	-6.095E-02	-9.577E-01	 1.639E-01	-3.438E-02	-9.997E-02
   45.2000	 1.800E+01	 0.000E+00	 4.547E+01	 3.170E+00	 4.741E-01	-5.347E-02	-9.801E-01	 1.491E-01	-3.466E-02	-9.997E-02
   45.4000	 1.800E+01	 0.000E+00	 4.547E+01	 3.355E+00	 2.471E-01	-4.282E-02	-1.212E+00	-3.841E-01	-3.668E-02	-9.997E-02
   45.6000	 1.800E+01	 0.000E+00	 4.547E+01	 3.330E+00	-2.706E-02	-4.181E-02	-1.121E+00	 2.392E-01	-3.640E-02	-9.997E-02
   45.8000	 1.800E+01	 0.000E+00	 4.547E+01	 3.201E+00	-3.444E-01	-3.632E-02	-5.301E-01	-1.376E-01	-3.499E-02	-9.997E-02
   46.0000	 1.800E+01	 0.000E+00	 4.547E+01	 3.026E+00	-6.812E-01	-3.388E-02	 4.929E-01	-1.239E-01	-3.308E-02	-9.997E-02
   46.2000	 1.800E+01	 0.000E+00	 4.547E+01	 2.899E+00	-1.000E+00	-3.621E-02	 9.796E-01	 9.538E-02	-3.169E-02	-9.997E-02
   46.4000	 1.800E+01	 0.000E+00	 4.547E+01	 2.835E+00	-1.281E+00	-3.544E-02	 1.282E+00	 9.538E-02	-3.099E-02	-9.997E-02
   46.6000	 1.800E+01	 0.000E+00	 4.547E+01	 3.006E+00	-1.510E+00	-3.057E-02	 1.648E+00	 2.156E-01	-3.286E-02	-9.997E-02
   46.8000	 1.800E+01	 0.000E+00	 4.547E+01	 2.904E+00	-1.674E+00	-1.767E-02	 1.875E+00	 1.132E-01	-3.175E-02	-9.997E-02
   47.0000	 1.800E+01	 0.000E+00	 4.547E+01	 2.933E+00	-1.763E+00	-8.964E-04	 2.012E+00	-1.177E-01	-3.206E-02	-9.997E-02
   47.2000	 1.800E+01	 0.000E+00	 4.547E+01	 2.921E+00	-1.772E+00	 1.297E-02	 2.010E+00	 5.160E-02	-3.194E-02	-9.997E-02
   47.4000	 1.800E+01	 0.000E+00	 4.547E+01	 2.905E+00	-1.700E+00	 2.703E-02	 1.874E+00	-1.926E-01	-3.176E-02	-9.997E-02
   47.6000	 1.800E+01	 0.000E+00	 4.547E+01	 2.780E+00	-1.555E+00	 3.350E-02	 1.660E+00	-3.614E-01	-3.039E-02	-9.997E-02
   47.8000	 1.800E+01	 0.000E+00	 4.547E+01	 2.680E+00	-1.343E+00	 2.828E-02	 1.220E+00	 8.711E-02	-2.931E-02	-9.997E-02
   48.0000	 1.800E+01	 0.000E+00	 4.547E+01	 2.619E+00	-1.083E+00	 2.405E-02	 6.729E-01	 5.399E-02	-2.864E-02	-9.997E-02
   48.2000	 1.800E+01	 0.000E+00	 4.547E+01	 2.632E+00	-7.958E-01	 2.361E-02	 3.349E-01	 2.564E-01	-2.878E-02	-9.997E-02
   48.4000	 1.800E+01	 0.000E+00	 4.547E+01	 2.577E+00	-4.947E-01	 3.097E-02	 2.824E-02	-2.312E-02	-2.818E-02	-9.997E-02
   48.6000	 1.800E+01	 0.000E+00	 4.547E+01	 2.568E+00	-1.928E-01	 3.877E-02	-3.469E-01	-8.414E-02	-2.807E-02	-9.997E-02
   48.8000	 1.800E+01	 0.000E+00	 4.547E+01	 2.532E+00	 9.519E-02	 4.240E-02	-7.664E-01	-2.718E-01	-2.768E-02	-9.997E-02
   49.0000	 1.800E+01	 0.000E+00	 4.547E+01	 2.493E+00	 3.522E-01	 3.590E-02	-1.253E+00	-3.342E-01	-2.726E-02	-9.998E-02
   49.2000	 1.800E+01	 0.000E+00	 4.547E+01	 2.465E+00	 5.593E-01	 1.623E-02	-1.675E+00	-2.253E-01	-2.695E-02	-9.998E-02
   49.4000	 1.800E+01	 0.000E+00	 4.547E+01	 2.404E+00	 7.002E-01	-1.034E-02	-1.899E+00	 3.196E-01	-2.628E-02	-9.998E-02
   49.6000	 1.800E+01	 0.000E+00	 4.547E+01	 2.397E+00	 7.657E-01	-2.690E-02	-1.938E+00	 2.840E-01	-2.621E-02	-9.998E-02
   49.8000	 1.800E+01	 0.000E+00	 4.547E+01	 2.419E+00	 7.542E-01	-3.080E-02	-1.804E+00	 4.039E-01	-2.645E-02	-9.998E-02
   50.0000	 1.800E+01	 0.000E+00	 4.547E+01	 2.429E+00	 6.710E-01	-2.101E-02	-1.548E+00	-2.639E-03	-2.656E-02	-9.998E-02
   50.2000	 1.800E+01	 0.000E+00	 4.547E+01	 2.459E+00	 5.259E-01	-1.025E-02	-1.292E+00	-2.389E-01	-2.689E-02	-9.998E-02
   50.4000	 1.800E+01	 0.000E+00	 4.547E+01	 2.456E+00	 3.292E-01	-9.325E-03	-1.013E+00	-4.337E-01	-2.685E-02	-9.998E-02
   50.6000	 1.800E+01	 0.000E+00	 4.547E+01	 2.486E+00	 9.202E-02	-2.402E-02	-7.011E-01	-2.303E-01	-2.718E-02	-9.998E-02
   50.8000	 1.800E+01	 0.000E+00	 4.547E+01	 2.514E+00	-1.729E-01	-4.810E-02	-2.966E-01	 4.318E-02	-2.748E-02	-9.997E-02
   51.0000	 1.800E+01	 0.000E+00	 4.547E+01	 2.534E+00	-4.493E-01	-6.957E-02	 1.820E-01	 4.414E-01	-2.771E-02	-9.997E-02
   51.2000	 1.800E+01	 0.000E+00	 4.547E+01	 2.576E+00	-7.186E-01	-7.557E-02	 6.179E-01	 3.548E-01	-2.816E-02	-9.997E-02
   51.4000	 1.800E+01	 0.000E+00	 4.547E+01	 2.615E+00	-9.635E-01	-6.675E-02	 9.725E-01	 2.885E-01	-2.859E-02	-9.997E-02
   51.6000	 1.800E+01	 0.000E+00	 4.547E+01	 2.634E+00	-1.170E+00	-4.832E-02	 1.232E+00	-1.908E-01	-2.879E-02	-9.997E-02
   51.8000	 1.800E+01	 0.000E+00	 4.547E+01	 2.647E+00	-1.327E+00	-3.602E-02	 1.401E+00	-3.577E-01	-2.893E-02	-9.997E-02
   52.0000	 1.800E+01	 0.000E+00	 4.547E+01	 2.636E+00	-1.429E+00	-3.762E-02	 1.542E+00	-3.179E-01	-2.882E-02	-9.997E-02
   52.2000	 1.800E+01	 0.000E+00	 4.547E+01	 2.629E+00	-1.468E+00	-5.064E-02	 1.634E+00	 1.796E-02	-2.875E-02	-9.997E-02
   52.4000	 1.800E+01	 0.000E+00	 4.547E+01	 2.622E+00	-1.443E+00	-6.350E-02	 1.618E+00	 2.748E-01	-2.866E-02	-9.997E-02
   52.6000	 1.800E+01	 0.000E+00	 4.547E+01	 2.600E+00	-1.354E+00	-6.515E-02	 1.461E+00	 5.019E-01	-2.842E-02	-9.997E-02
   52.8000	 1.800E+01	 0.000E+00	 4.547E+01	 2.585E+00	-1.207E+00	-4.864E-02	 1.147E+00	 2.706E-01	-2.827E-02	-9.997E-02
   53.0000	 1.800E+01	 0.000E+00	 4.547E+01	 2.554E+00	-1.014E+00	-2.104E-02	 7.292E-01	 2.166E-02	-2.792E-02	-9.997E-02
   53.2000	 1.800E+01	 0.000E+00	 4.547E+01	 2.518E+00	-7.917E-01	 6.783E-03	 3.289E-01	-3.321E-01	-2.753E-02	-9.997E-02
   53.4000	 1.800E+01	 0.000E+00	 4.547E+01	 2.476E+00	-5.561E-01	 2.285E-02	 2.736E-02	-3.293E-01	-2.707E-02	-9.998E-02
   53.6000	 1.800E+01	 0.000E+00	 4.547E+01	 2.441E+00	-3.192E-01	 2.589E-02	-2.045E-01	-2.112E-01	-2.669E-02	-9.998E-02
   53.8000	 1.800E+01	 0.000E+00	 4.547E+01	 2.428E+00	-9.049E-02	 2.122E-02	-4.315E-01	 5.707E-02	-2.654E-02	-9.998E-02
   54.0000	 1.800E+01	 0.000E+00	 4.547E+01	 2.409E+00	 1.207E-01	 1.812E-02	-7.329E-01	 1.871E-01	-2.634E-02	-9.998E-02
   54.2000	 1.800E+01	 0.000E+00	 4.547E+01	 2.400E+00	 3.024E-01	 2.231E-02	-1.094E+00	 1.921E-01	-2.624E-02	-9.998E-02
   54.4000	 1.800E+01	 0.000E+00	 4.547E+01	 2.393E+00	 4.403E-01	 3.302E-02	-1.460E+00	-5.219E-02	-2.617E-02	-9.998E-02
   54.6000	 1.800E+01	 0.000E+00	 4.547E+01	 2.383E+00	 5.204E-01	 4.259E-02	-1.644E+00	-1.317E-01	-2.605E-02	-9.998E-02
   54.8000	 1.800E+01	 0.000E+00	 4.547E+01	 2.386E+00	 5.355E-01	 4.635E-02	-1.580E+00	-2.878E-01	-2.609E-02	-9.998E-02
   55.0000	 1.800E+01	 0.000E+00	 4.547E+01	 2.377E+00	 4.881E-01	 3.956E-02	-1.319E+00	-2.315E-01	-2.599E-02	-9.998E-02
   55.2000	 1.800E+01	 0.000E+00	 4.547E+01	 2.403E+00	 3.881E-01	 2.366E-02	-1.015E+00	-8.618E-02	-2.627E-02	-9.998E-02
   55.4000	 1.800E+01	 0.000E+00	 4.547E+01	 2.409E+00	 2.473E-01	 4.466E-03	-7.600E-01	 6.183E-02	-2.634E-02	-9.998E-02
   55.6000	 1.800E+01	 0.000E+00	 4.547E+01	 2.445E+00	 7.587E-02	-1.282E-02	-5.930E-01	 7.843E-02	-2.673E-02	-9.998E-02
   55.8000	 1.800E+01	 0.000E+00	 4.547E+01	 2.466E+00	-1.194E-01	-2.674E-02	-4.505E-01	 1.222E-01	-2.696E-02	-9.998E-02
   56.0000	 1.800E+01	 0.000E+00	 4.547E+01	 2.506E+00	-3.323E-01	-3.632E-02	-1.834E-01	 4.771E-02	-2.740E-02	-9.997E-02
   56.2000	 1.800E+01	 0.000E+00	 4.547E+01	 2.537E+00	-5.521E-01	-4.382E-02	 1.992E-01	-5.398E-03	-2.774E-02	-9.997E-02
   56.4000	 1.800E+01	 0.000E+00	 4.547E+01	 2.564E+00	-7.637E-01	-5.153E-02	 6.461E-01	-5.128E-02	-2.803E-02	-9.997E-02
   56.6000	 1.800E+01	 0.000E+00	 4.547E+01	 2.588E+00	-9.497E-01	-6.105E-02	 1.034E+00	-3.543E-02	-2.830E-02	-9.997E-02
   56.8000	 1.800E+01	 0.000E+00	 4.547E+01	 2.595E+00	-1.095E+00	-7.196E-02	 1.259E+00	-8.004E-03	-2.838E-02	-9.997E-02
   57.0000	 1.800E+01	 0.000E+00	 4.547E+01	 2.595E+00	-1.190E+00	-8.311E-02	 1.288E+00	 5.004E-02	-2.837E-02	-9.997E-02
   57.2000	 1.800E+01	 0.000E+00	 4.547E+01	 2.594E+00	-1.235E+00	-9.197E-02	 1.212E+00	 1.800E-01	-2.836E-02	-9.997E-02
   57.4000	 1.800E+01	 0.000E+00	 4.547E+01	 2.586E+00	-1.230E+00	-9.383E-02	 1.111E+00	 2.608E-01	-2.827E-02	-9.997E-02
   57.6000	 1.800E+01	 0.000E+00	 4.547E+01	 2.582E+00	-1.182E+00	-8.560E-02	 1.034E+00	 2.406E-01	-2.823E-02	-9.997E-02
   57.8000	 1.800E+01	 0.000E+00	 4.547E+01	 2.578E+00	-1.092E+00	-6.793E-02	 9.723E-01	 1.510E-01	-2.818E-02	-9.997E-02
   58.0000	 1.800E+01	 0.000E+00	 4.547E+01	 2.561E+00	-9.629E-01	-4.457E-02	 8.638E-01	-2.538E-02	-2.800E-02	-9.997E-02
   58.2000	 1.800E+01	 0.000E+00	 4.547E+01	 2.537E+00	-8.000E-01	-2.207E-02	 6.331E-01	-1.652E-01	-2.773E-02	-9.997E-02
   58.4000	 1.800E+01	 0.000E+00	 4.547E+01	 2.500E+00	-6.121E-01	-5.776E-03	 2.769E-01	-1.796E-01	-2.734E-02	-9.997E-02